 Gaussian 16, Revision C.01,
 Gaussian 16:  ES64L-G16RevC.01  3-Jul-2019

 -----------------------------------------------------
 #P MP2/aug-cc-pVTZ scf(maxcycle=200) opt geom(AddGIC)
 -----------------------------------------------------

 --------------
 Gaussian input
 --------------
 Symbolic Z-matrix:
 Charge = -1 Multiplicity = 1

 SCF Done:  E(RHF) =  -489.913397902     A.U. after   15 cycles
 E2 =    -0.5376502460D+00 EUMP2 =    -0.49045104814776D+03
 SCF Done:  E(RHF) =  -489.913174829     A.U. after   13 cycles
 E2 =    -0.5385526837D+00 EUMP2 =    -0.49045172751233D+03
 SCF Done:  E(RHF) =  -489.913337332     A.U. after   12 cycles
 E2 =    -0.5384190859D+00 EUMP2 =    -0.49045175641777D+03
 SCF Done:  E(RHF) =  -489.913434698     A.U. after   10 cycles
 E2 =    -0.5383223245D+00 EUMP2 =    -0.49045175702248D+03
 Optimization completed.
    -- Stationary point found.

                         Standard orientation:
 ---------------------------------------------------------------------
 Center     Atomic      Atomic             Coordinates (Angstroms)
 Number     Number       Type             X           Y           Z
 ---------------------------------------------------------------------
      1          7           0        0.930274    1.481213    0.000000
      2          6           0        0.000000    0.725101    0.000000
      3         16           0       -0.406995   -0.919943   -0.000000
 ---------------------------------------------------------------------

 The electronic state is 1-A'.
 Alpha  occ. eigenvalues --  -91.72724 -15.37165 -11.10232  -8.72860  -6.41049
 Alpha  occ. eigenvalues --   -6.40798  -6.40787  -1.00279  -0.75327  -0.41721
 Alpha  occ. eigenvalues --   -0.33154  -0.29936  -0.29757  -0.13705  -0.12981
 Alpha virt. eigenvalues --    0.17588   0.19129   0.22008   0.23457   0.23932
 Alpha virt. eigenvalues --    0.24231   0.24729   0.29113   0.30172   0.30826
 Alpha virt. eigenvalues --    0.32910   0.37798   0.39394   0.42053   0.44619

 Mulliken charges:
               1
     1  N   -0.431785
     2  C   -0.077438
     3  S   -0.490777
 Sum of Mulliken charges =  -1.00000

 Dipole moment (field-independent basis, Debye):
    X=             -0.6491    Y=             -0.6532    Z=             -0.0000  Tot=              0.9209
 Quadrupole moment (field-independent basis, Debye-Ang):
   XX=            -32.6772   YY=            -37.2166   ZZ=            -29.5177
   XY=             -5.4838   XZ=              0.0000   YZ=              0.0000

 Normal termination of Gaussian 16 at Wed May  4 19:08:33 2022.
