 Gaussian 16, Revision C.01,
 Gaussian 16:  ES64L-G16RevC.01  3-Jul-2019

 -----------------------------------------------------
 #P MP2/aug-cc-pVTZ scf(maxcycle=200) opt geom(AddGIC)
 -----------------------------------------------------

 --------------
 Gaussian input
 --------------
 Symbolic Z-matrix:
 Charge = -1 Multiplicity = 1

 SCF Done:  E(RHF) =  -489.925196682     A.U. after   15 cycles
 E2 =    -0.5363275744D+00 EUMP2 =    -0.49046152425638D+03
 SCF Done:  E(RHF) =  -489.924752813     A.U. after   12 cycles
 E2 =    -0.5370116359D+00 EUMP2 =    -0.49046176444922D+03
 SCF Done:  E(RHF) =  -489.924790080     A.U. after    9 cycles
 E2 =    -0.5369822634D+00 EUMP2 =    -0.49046177234372D+03
 SCF Done:  E(RHF) =  -489.924834459     A.U. after    8 cycles
 E2 =    -0.5369380238D+00 EUMP2 =    -0.49046177248238D+03
 Optimization completed.
    -- Stationary point found.

                         Standard orientation:
 ---------------------------------------------------------------------
 Center     Atomic      Atomic             Coordinates (Angstroms)
 Number     Number       Type             X           Y           Z
 ---------------------------------------------------------------------
      1          7           0        0.781142    1.595534   -0.000000
      2          6           0        0.000000    0.688572    0.000000
      3         16           0       -0.341750   -0.956261    0.000000
 ---------------------------------------------------------------------

 The electronic state is 1-A'.
 Alpha  occ. eigenvalues --  -91.72915 -15.36567 -11.10232  -8.73086  -6.41279
 Alpha  occ. eigenvalues --   -6.41030  -6.41023  -0.99927  -0.76240  -0.41534
 Alpha  occ. eigenvalues --   -0.33264  -0.29868  -0.29782  -0.13846  -0.13386
 Alpha virt. eigenvalues --    0.17440   0.19172   0.22578   0.23594   0.23949
 Alpha virt. eigenvalues --    0.24097   0.24754   0.29427   0.30178   0.31083
 Alpha virt. eigenvalues --    0.33981   0.37804   0.39765   0.42041   0.44556

 Mulliken charges:
               1
     1  N   -0.432738
     2  C   -0.083577
     3  S   -0.483685
 Sum of Mulliken charges =  -1.00000

 Dipole moment (field-independent basis, Debye):
    X=             -0.6569    Y=             -0.9882    Z=             -0.0000  Tot=              1.1866
 Quadrupole moment (field-independent basis, Debye-Ang):
   XX=            -31.6353   YY=            -38.5181   ZZ=            -29.4172
   XY=             -4.9283   XZ=             -0.0000   YZ=             -0.0000

 Normal termination of Gaussian 16 at Wed May  4 19:07:05 2022.
