 Gaussian 16, Revision C.01,
 Gaussian 16:  ES64L-G16RevC.01  3-Jul-2019

 -----------------------------------------------------
 #P MP2/aug-cc-pVTZ scf(maxcycle=200) opt geom(AddGIC)
 -----------------------------------------------------

 --------------
 Gaussian input
 --------------
 Symbolic Z-matrix:
 Charge = -1 Multiplicity = 1

 SCF Done:  E(RHF) =  -489.906418269     A.U. after   15 cycles
 E2 =    -0.5382349329D+00 EUMP2 =    -0.49044465320159D+03
 SCF Done:  E(RHF) =  -489.906547119     A.U. after   13 cycles
 E2 =    -0.5391692454D+00 EUMP2 =    -0.49044571636432D+03
 SCF Done:  E(RHF) =  -489.906836072     A.U. after   12 cycles
 E2 =    -0.5389333022D+00 EUMP2 =    -0.49044576937435D+03
 SCF Done:  E(RHF) =  -489.906972950     A.U. after   10 cycles
 E2 =    -0.5387975931D+00 EUMP2 =    -0.49044577054302D+03
 Optimization completed.
    -- Stationary point found.

                         Standard orientation:
 ---------------------------------------------------------------------
 Center     Atomic      Atomic             Coordinates (Angstroms)
 Number     Number       Type             X           Y           Z
 ---------------------------------------------------------------------
      1          7           0        0.991234    1.421641   -0.000000
      2          6           0        0.000000    0.746474   -0.000000
      3         16           0       -0.433665   -0.901896    0.000000
 ---------------------------------------------------------------------

 The electronic state is 1-A'.
 Alpha  occ. eigenvalues --  -91.72622 -15.37529 -11.10210  -8.72735  -6.40922
 Alpha  occ. eigenvalues --   -6.40669  -6.40656  -1.00527  -0.74769  -0.41861
 Alpha  occ. eigenvalues --   -0.33077  -0.30003  -0.29751  -0.13628  -0.12763
 Alpha virt. eigenvalues --    0.17664   0.19108   0.21740   0.23378   0.23900
 Alpha virt. eigenvalues --    0.24313   0.24751   0.28982   0.30139   0.30552
 Alpha virt. eigenvalues --    0.32524   0.37866   0.39202   0.42027   0.44653

 Mulliken charges:
               1
     1  N   -0.425327
     2  C   -0.079801
     3  S   -0.494872
 Sum of Mulliken charges =  -1.00000

 Dipole moment (field-independent basis, Debye):
    X=             -0.6064    Y=             -0.4698    Z=             -0.0000  Tot=              0.7671
 Quadrupole moment (field-independent basis, Debye-Ang):
   XX=            -33.1693   YY=            -36.5716   ZZ=            -29.5779
   XY=             -5.6109   XZ=              0.0000   YZ=              0.0000

 Normal termination of Gaussian 16 at Wed May  4 19:08:45 2022.
