 Gaussian 16, Revision C.01,
 Gaussian 16:  ES64L-G16RevC.01  3-Jul-2019

 -----------------------------------------------------
 #P MP2/aug-cc-pVTZ scf(maxcycle=200) opt geom(AddGIC)
 -----------------------------------------------------

 --------------
 Gaussian input
 --------------
 Symbolic Z-matrix:
 Charge = -1 Multiplicity = 1

 SCF Done:  E(RHF) =  -489.942064804     A.U. after   14 cycles
 E2 =    -0.5338363638D+00 EUMP2 =    -0.49047590116809D+03
 SCF Done:  E(RHF) =  -489.941988258     A.U. after    8 cycles
 E2 =    -0.5339143402D+00 EUMP2 =    -0.49047590259865D+03
 Optimization completed.
    -- Stationary point found.

                         Standard orientation:
 ---------------------------------------------------------------------
 Center     Atomic      Atomic             Coordinates (Angstroms)
 Number     Number       Type             X           Y           Z
 ---------------------------------------------------------------------
      1          7           0        0.269797    1.796122    0.000000
      2          6           0        0.000000    0.634212    0.000000
      3         16           0       -0.118036   -1.023633   -0.000000
 ---------------------------------------------------------------------

 The electronic state is 1-A'.
 Alpha  occ. eigenvalues --  -91.73204 -15.35760 -11.10175  -8.73424  -6.41623
 Alpha  occ. eigenvalues --   -6.41376  -6.41375  -0.99556  -0.77500  -0.41367
 Alpha  occ. eigenvalues --   -0.33382  -0.29862  -0.29857  -0.14067  -0.14021
 Alpha virt. eigenvalues --    0.17200   0.19245   0.23647   0.23723   0.23930
 Alpha virt. eigenvalues --    0.23975   0.24945   0.30258   0.30342   0.31079
 Alpha virt. eigenvalues --    0.35715   0.39429   0.40420   0.41300   0.44113

 Mulliken charges:
               1
     1  N   -0.412365
     2  C   -0.114949
     3  S   -0.472686
 Sum of Mulliken charges =  -1.00000

 Dipole moment (field-independent basis, Debye):
    X=             -0.2803    Y=             -1.5391    Z=             -0.0000  Tot=              1.5644
 Quadrupole moment (field-independent basis, Debye-Ang):
   XX=            -29.5375   YY=            -41.0037   ZZ=            -29.2753
   XY=             -1.8831   XZ=              0.0000   YZ=              0.0000

 Normal termination of Gaussian 16 at Wed May  4 19:04:21 2022.
