 Gaussian 16, Revision C.01,
 Gaussian 16:  ES64L-G16RevC.01  3-Jul-2019

 -----------------------------------------------------
 #P MP2/aug-cc-pVTZ scf(maxcycle=200) opt geom(AddGIC)
 -----------------------------------------------------

 --------------
 Gaussian input
 --------------
 Symbolic Z-matrix:
 Charge = -1 Multiplicity = 1

 SCF Done:  E(RHF) =  -489.940121485     A.U. after   14 cycles
 E2 =    -0.5341546672D+00 EUMP2 =    -0.49047427615176D+03
 SCF Done:  E(RHF) =  -489.939967249     A.U. after    9 cycles
 E2 =    -0.5343167321D+00 EUMP2 =    -0.49047428398135D+03
 Optimization completed.
    -- Stationary point found.

                         Standard orientation:
 ---------------------------------------------------------------------
 Center     Atomic      Atomic             Coordinates (Angstroms)
 Number     Number       Type             X           Y           Z
 ---------------------------------------------------------------------
      1          7           0        0.384711    1.770092   -0.000000
      2          6           0       -0.000000    0.640450    0.000000
      3         16           0       -0.168311   -1.014584    0.000000
 ---------------------------------------------------------------------

 The electronic state is 1-A'.
 Alpha  occ. eigenvalues --  -91.73167 -15.35845 -11.10180  -8.73382  -6.41581
 Alpha  occ. eigenvalues --   -6.41333  -6.41332  -0.99591  -0.77368  -0.41379
 Alpha  occ. eigenvalues --   -0.33371  -0.29861  -0.29848  -0.14038  -0.13943
 Alpha virt. eigenvalues --    0.17228   0.19237   0.23532   0.23721   0.23914
 Alpha virt. eigenvalues --    0.23977   0.24914   0.30127   0.30300   0.31094
 Alpha virt. eigenvalues --    0.35572   0.38947   0.40335   0.41561   0.44251

 Mulliken charges:
               1
     1  N   -0.415850
     2  C   -0.110360
     3  S   -0.473790
 Sum of Mulliken charges =  -1.00000

 Dipole moment (field-independent basis, Debye):
    X=             -0.3913    Y=             -1.4713    Z=             -0.0000  Tot=              1.5224
 Quadrupole moment (field-independent basis, Debye-Ang):
   XX=            -29.8242   YY=            -40.6686   ZZ=            -29.2903
   XY=             -2.6531   XZ=              0.0000   YZ=             -0.0000

 Normal termination of Gaussian 16 at Wed May  4 19:04:23 2022.
