 Gaussian 16, Revision C.01,
 Gaussian 16:  ES64L-G16RevC.01  3-Jul-2019

 -----------------------------------------------------
 #P MP2/aug-cc-pVTZ scf(maxcycle=200) opt geom(AddGIC)
 -----------------------------------------------------

 --------------
 Gaussian input
 --------------
 Symbolic Z-matrix:
 Charge = -1 Multiplicity = 1

 SCF Done:  E(RHF) =  -489.943828851     A.U. after   12 cycles
 E2 =    -0.5335410307D+00 EUMP2 =    -0.49047736988173D+03

 The electronic state is 1-A'.
 Alpha  occ. eigenvalues --  -91.73241 -15.35688 -11.10175  -8.73463  -6.41663
 Alpha  occ. eigenvalues --   -6.41416  -6.41416  -0.99526  -0.77611  -0.41360
 Alpha  occ. eigenvalues --   -0.33392  -0.29863  -0.29863  -0.14095  -0.14094
 Alpha virt. eigenvalues --    0.17175   0.19252   0.23720   0.23721   0.23978
 Alpha virt. eigenvalues --    0.23979   0.24975   0.30388   0.30389   0.31064
 Alpha virt. eigenvalues --    0.35824   0.40373   0.40499   0.40589   0.43949

 Mulliken charges:
               1
     1  N   -0.409039
     2  C   -0.119114
     3  S   -0.471847
 Sum of Mulliken charges =  -1.00000

 Dipole moment (field-independent basis, Debye):
    X=             -0.0321    Y=             -1.6014    Z=              0.0000  Tot=              1.6017
 Quadrupole moment (field-independent basis, Debye-Ang):
   XX=            -29.2660   YY=            -41.3215   ZZ=            -29.2627
   XY=             -0.2141   XZ=              0.0000   YZ=              0.0000

 Optimization completed.
    -- Stationary point found.

                         Standard orientation:
 ---------------------------------------------------------------------
 Center     Atomic      Atomic             Coordinates (Angstroms)
 Number     Number       Type             X           Y           Z
 ---------------------------------------------------------------------
      1          7           0        0.030334    1.820621    0.000000
      2          6           0        0.000000    0.628650    0.000000
      3         16           0       -0.013271   -1.032265   -0.000000
 ---------------------------------------------------------------------

 Normal termination of Gaussian 16 at Wed May  4 19:03:55 2022.
