 Gaussian 16, Revision C.01,
 Gaussian 16:  ES64L-G16RevC.01  3-Jul-2019

 -----------------------------------------------------
 #P MP2/aug-cc-pVTZ scf(maxcycle=200) opt geom(AddGIC)
 -----------------------------------------------------

 --------------
 Gaussian input
 --------------
 Symbolic Z-matrix:
 Charge = -1 Multiplicity = 1

 SCF Done:  E(RHF) =  -489.937466889     A.U. after   15 cycles
 E2 =    -0.5345771074D+00 EUMP2 =    -0.49047204399656D+03
 SCF Done:  E(RHF) =  -489.937220397     A.U. after    9 cycles
 E2 =    -0.5348486856D+00 EUMP2 =    -0.49047206908297D+03
 SCF Done:  E(RHF) =  -489.937215542     A.U. after    8 cycles
 E2 =    -0.5348541792D+00 EUMP2 =    -0.49047206972161D+03
 Optimization completed.
    -- Stationary point found.

                         Standard orientation:
 ---------------------------------------------------------------------
 Center     Atomic      Atomic             Coordinates (Angstroms)
 Number     Number       Type             X           Y           Z
 ---------------------------------------------------------------------
      1          7           0        0.494388    1.736412   -0.000000
      2          6           0        0.000000    0.649394   -0.000000
      3         16           0       -0.216295   -1.003203    0.000000
 ---------------------------------------------------------------------

 The electronic state is 1-A'.
 Alpha  occ. eigenvalues --  -91.73126 -15.35976 -11.10199  -8.73332  -6.41529
 Alpha  occ. eigenvalues --   -6.41281  -6.41279  -0.99641  -0.77159  -0.41403
 Alpha  occ. eigenvalues --   -0.33354  -0.29853  -0.29830  -0.14004  -0.13843
 Alpha virt. eigenvalues --    0.17266   0.19224   0.23354   0.23710   0.23915
 Alpha virt. eigenvalues --    0.23987   0.24876   0.29964   0.30255   0.31107
 Alpha virt. eigenvalues --    0.35333   0.38506   0.40218   0.41756   0.44374

 Mulliken charges:
               1
     1  N   -0.420307
     2  C   -0.103913
     3  S   -0.475780
 Sum of Mulliken charges =  -1.00000

 Dipole moment (field-independent basis, Debye):
    X=             -0.4874    Y=             -1.3789    Z=             -0.0000  Tot=              1.4625
 Quadrupole moment (field-independent basis, Debye-Ang):
   XX=            -30.1969   YY=            -40.2367   ZZ=            -29.3142
   XY=             -3.3539   XZ=             -0.0000   YZ=             -0.0000

 Normal termination of Gaussian 16 at Wed May  4 19:06:28 2022.
