 Gaussian 16, Revision C.01,
 Gaussian 16:  ES64L-G16RevC.01  3-Jul-2019

 -----------------------------------------------------
 #P MP2/aug-cc-pVTZ scf(maxcycle=200) opt geom(AddGIC)
 -----------------------------------------------------

 --------------
 Gaussian input
 --------------
 Symbolic Z-matrix:
 Charge = -1 Multiplicity = 1

 SCF Done:  E(RHF) =  -489.890392702     A.U. after   15 cycles
 E2 =    -0.5388903396D+00 EUMP2 =    -0.49042928304129D+03
 SCF Done:  E(RHF) =  -489.892057915     A.U. after   13 cycles
 E2 =    -0.5396099585D+00 EUMP2 =    -0.49043166787396D+03
 SCF Done:  E(RHF) =  -489.892814152     A.U. after   12 cycles
 E2 =    -0.5390242092D+00 EUMP2 =    -0.49043183836168D+03
 SCF Done:  E(RHF) =  -489.893034314     A.U. after   11 cycles
 E2 =    -0.5388070769D+00 EUMP2 =    -0.49043184139073D+03
 Optimization completed.
    -- Stationary point found.

                         Standard orientation:
 ---------------------------------------------------------------------
 Center     Atomic      Atomic             Coordinates (Angstroms)
 Number     Number       Type             X           Y           Z
 ---------------------------------------------------------------------
      1          7           0        1.085858    1.303731   -0.000000
      2          6           0        0.000000    0.795746   -0.000000
      3         16           0       -0.475063   -0.868787    0.000000
 ---------------------------------------------------------------------

 The electronic state is 1-A'.
 Alpha  occ. eigenvalues --  -91.72438 -15.38383 -11.10077  -8.72492  -6.40674
 Alpha  occ. eigenvalues --   -6.40415  -6.40396  -1.01208  -0.73430  -0.42261
 Alpha  occ. eigenvalues --   -0.32854  -0.30233  -0.29757  -0.13469  -0.12334
 Alpha virt. eigenvalues --    0.17798   0.19073   0.21260   0.23205   0.23811
 Alpha virt. eigenvalues --    0.24499   0.24859   0.28775   0.29425   0.30318
 Alpha virt. eigenvalues --    0.32129   0.38047   0.38835   0.41934   0.44737

 Mulliken charges:
               1
     1  N   -0.395742
     2  C   -0.100063
     3  S   -0.504195
 Sum of Mulliken charges =  -1.00000

 Dipole moment (field-independent basis, Debye):
    X=             -0.4504    Y=             -0.0877    Z=             -0.0000  Tot=              0.4588
 Quadrupole moment (field-independent basis, Debye-Ang):
   XX=            -34.0144   YY=            -35.3663   ZZ=            -29.7170
   XY=             -5.5692   XZ=             -0.0000   YZ=             -0.0000

 Normal termination of Gaussian 16 at Wed May  4 19:10:05 2022.
