 Gaussian 16, Revision C.01,
 Gaussian 16:  ES64L-G16RevC.01  3-Jul-2019

 -----------------------------------------------------
 #P MP2/aug-cc-pVTZ scf(maxcycle=200) opt geom(AddGIC)
 -----------------------------------------------------

 --------------
 Gaussian input
 --------------
 Symbolic Z-matrix:
 Charge = -1 Multiplicity = 1

 SCF Done:  E(RHF) =  -489.930008427     A.U. after   15 cycles
 E2 =    -0.5356827793D+00 EUMP2 =    -0.49046569120578D+03
 SCF Done:  E(RHF) =  -489.929594519     A.U. after   11 cycles
 E2 =    -0.5362250655D+00 EUMP2 =    -0.49046581958420D+03
 SCF Done:  E(RHF) =  -489.929606517     A.U. after    9 cycles
 E2 =    -0.5362168867D+00 EUMP2 =    -0.49046582340396D+03
 Optimization completed.
    -- Stationary point found.

                         Standard orientation:
 ---------------------------------------------------------------------
 Center     Atomic      Atomic             Coordinates (Angstroms)
 Number     Number       Type             X           Y           Z
 ---------------------------------------------------------------------
      1          7           0        0.693568    1.647750   -0.000000
      2          6           0        0.000000    0.673283   -0.000000
      3         16           0       -0.303436   -0.973372    0.000000
 ---------------------------------------------------------------------

 The electronic state is 1-A'.
 Alpha  occ. eigenvalues --  -91.72996 -15.36332 -11.10225  -8.73182  -6.41376
 Alpha  occ. eigenvalues --   -6.41128  -6.41123  -0.99799  -0.76609  -0.41476
 Alpha  occ. eigenvalues --   -0.33302  -0.29854  -0.29797  -0.13906  -0.13560
 Alpha virt. eigenvalues --    0.17373   0.19192   0.22862   0.23647   0.23939
 Alpha virt. eigenvalues --    0.24046   0.24791   0.29604   0.30192   0.31115
 Alpha virt. eigenvalues --    0.34524   0.37925   0.39930   0.41990   0.44518

 Mulliken charges:
               1
     1  N   -0.429555
     2  C   -0.089912
     3  S   -0.480533
 Sum of Mulliken charges =  -1.00000

 Dipole moment (field-independent basis, Debye):
    X=             -0.6233    Y=             -1.1367    Z=             -0.0000  Tot=              1.2964
 Quadrupole moment (field-independent basis, Debye-Ang):
   XX=            -31.1209   YY=            -39.1414   ZZ=            -29.3765
   XY=             -4.5002   XZ=             -0.0000   YZ=             -0.0000

 Normal termination of Gaussian 16 at Wed May  4 19:06:34 2022.
