 Gaussian 16, Revision C.01,
 Gaussian 16:  ES64L-G16RevC.01  3-Jul-2019

 -----------------------------------------------------
 #P MP2/aug-cc-pVTZ scf(maxcycle=200) opt geom(AddGIC)
 -----------------------------------------------------

 --------------
 Gaussian input
 --------------
 Symbolic Z-matrix:
 Charge = -1 Multiplicity = 1

 SCF Done:  E(RHF) =  -489.919659603     A.U. after   15 cycles
 E2 =    -0.5369966582D+00 EUMP2 =    -0.49045665626130D+03
 SCF Done:  E(RHF) =  -489.919264516     A.U. after   12 cycles
 E2 =    -0.5378075055D+00 EUMP2 =    -0.49045707202187D+03
 SCF Done:  E(RHF) =  -489.919348163     A.U. after   10 cycles
 E2 =    -0.5377392475D+00 EUMP2 =    -0.49045708741011D+03
 SCF Done:  E(RHF) =  -489.919414895     A.U. after    9 cycles
 E2 =    -0.5376728172D+00 EUMP2 =    -0.49045708771248D+03
 Optimization completed.
    -- Stationary point found.

                         Standard orientation:
 ---------------------------------------------------------------------
 Center     Atomic      Atomic             Coordinates (Angstroms)
 Number     Number       Type             X           Y           Z
 ---------------------------------------------------------------------
      1          7           0        0.860191    1.539589   -0.000000
      2          6           0        0.000000    0.705808   -0.000000
      3         16           0       -0.376333   -0.938248    0.000000
 ---------------------------------------------------------------------

 The electronic state is 1-A'.
 Alpha  occ. eigenvalues --  -91.72823 -15.36844 -11.10237  -8.72978  -6.41169
 Alpha  occ. eigenvalues --   -6.40919  -6.40911  -1.00082  -0.75816  -0.41614
 Alpha  occ. eigenvalues --   -0.33216  -0.29893  -0.29768  -0.13778  -0.13191
 Alpha virt. eigenvalues --    0.17512   0.19151   0.22289   0.23530   0.23948
 Alpha virt. eigenvalues --    0.24159   0.24732   0.29262   0.30175   0.30999
 Alpha virt. eigenvalues --    0.33418   0.37769   0.39584   0.42060   0.44588

 Mulliken charges:
               1
     1  N   -0.433887
     2  C   -0.079062
     3  S   -0.487051
 Sum of Mulliken charges =  -1.00000

 Dipole moment (field-independent basis, Debye):
    X=             -0.6660    Y=             -0.8267    Z=              0.0000  Tot=              1.0616
 Quadrupole moment (field-independent basis, Debye-Ang):
   XX=            -32.1602   YY=            -37.8708   ZZ=            -29.4642
   XY=             -5.2566   XZ=              0.0000   YZ=              0.0000

 Normal termination of Gaussian 16 at Wed May  4 19:08:19 2022.
