 Gaussian 16, Revision C.01,
 Gaussian 16:  ES64L-G16RevC.01  3-Jul-2019

 -----------------------------------------------------
 #P MP2/aug-cc-pVTZ scf(maxcycle=200) opt geom(AddGIC)
 -----------------------------------------------------

 --------------
 Gaussian input
 --------------
 Symbolic Z-matrix:
 Charge = -1 Multiplicity = 1

 SCF Done:  E(RHF) =  -489.898738054     A.U. after   15 cycles
 E2 =    -0.5386794330D+00 EUMP2 =    -0.49043741748715D+03
 SCF Done:  E(RHF) =  -489.899468888     A.U. after   11 cycles
 E2 =    -0.5395596605D+00 EUMP2 =    -0.49043902854812D+03
 SCF Done:  E(RHF) =  -489.899949985     A.U. after   12 cycles
 E2 =    -0.5391743554D+00 EUMP2 =    -0.49043912434067D+03
 SCF Done:  E(RHF) =  -489.900131652     A.U. after   11 cycles
 E2 =    -0.5389947297D+00 EUMP2 =    -0.49043912638129D+03
 Optimization completed.
    -- Stationary point found.

                         Standard orientation:
 ---------------------------------------------------------------------
 Center     Atomic      Atomic             Coordinates (Angstroms)
 Number     Number       Type             X           Y           Z
 ---------------------------------------------------------------------
      1          7           0        1.043054    1.362087    0.000000
      2          6           0       -0.000000    0.769991   -0.000000
      3         16           0       -0.456336   -0.884660   -0.000000
 ---------------------------------------------------------------------

 The electronic state is 1-A'.
 Alpha  occ. eigenvalues --  -91.72523 -15.37937 -11.10162  -8.72609  -6.40794
 Alpha  occ. eigenvalues --   -6.40538  -6.40522  -1.00835  -0.74138  -0.42039
 Alpha  occ. eigenvalues --   -0.32978  -0.30100  -0.29752  -0.13548  -0.12543
 Alpha virt. eigenvalues --    0.17735   0.19089   0.21491   0.23293   0.23857
 Alpha virt. eigenvalues --    0.24402   0.24796   0.28869   0.29906   0.30350
 Alpha virt. eigenvalues --    0.32277   0.37955   0.39013   0.41986   0.44692

 Mulliken charges:
               1
     1  N   -0.413532
     2  C   -0.087119
     3  S   -0.499349
 Sum of Mulliken charges =  -1.00000

 Dipole moment (field-independent basis, Debye):
    X=             -0.5391    Y=             -0.2798    Z=             -0.0000  Tot=              0.6074
 Quadrupole moment (field-independent basis, Debye-Ang):
   XX=            -33.6202   YY=            -35.9504   ZZ=            -29.6445
   XY=             -5.6390   XZ=              0.0000   YZ=              0.0000

 Normal termination of Gaussian 16 at Wed May  4 19:08:58 2022.
