 Gaussian 16, Revision C.01,
 Gaussian 16:  ES64L-G16RevC.01  3-Jul-2019

 -----------------------------------------------------
 #P MP2/aug-cc-pVTZ scf(maxcycle=200) opt geom(AddGIC)
 -----------------------------------------------------

 --------------
 Gaussian input
 --------------
 Symbolic Z-matrix:
 Charge = -1 Multiplicity = 1

 SCF Done:  E(RHF) =  -489.934097237     A.U. after   15 cycles
 E2 =    -0.5350919240D+00 EUMP2 =    -0.49046918916080D+03
 SCF Done:  E(RHF) =  -489.933757770     A.U. after   10 cycles
 E2 =    -0.5354929265D+00 EUMP2 =    -0.49046925069631D+03
 SCF Done:  E(RHF) =  -489.933757554     A.U. after    9 cycles
 E2 =    -0.5354948262D+00 EUMP2 =    -0.49046925238018D+03
 Optimization completed.
    -- Stationary point found.

                         Standard orientation:
 ---------------------------------------------------------------------
 Center     Atomic      Atomic             Coordinates (Angstroms)
 Number     Number       Type             X           Y           Z
 ---------------------------------------------------------------------
      1          7           0        0.597671    1.695142    0.000000
      2          6           0        0.000000    0.660266    0.000000
      3         16           0       -0.261481   -0.989225   -0.000000
 ---------------------------------------------------------------------

 The electronic state is 1-A'.
 Alpha  occ. eigenvalues --  -91.73067 -15.36135 -11.10211  -8.73263  -6.41460
 Alpha  occ. eigenvalues --   -6.41212  -6.41208  -0.99709  -0.76912  -0.41433
 Alpha  occ. eigenvalues --   -0.33332  -0.29851  -0.29814  -0.13959  -0.13714
 Alpha virt. eigenvalues --    0.17315   0.19210   0.23125   0.23686   0.23926
 Alpha virt. eigenvalues --    0.24010   0.24833   0.29786   0.30218   0.31117
 Alpha virt. eigenvalues --    0.34985   0.38158   0.40084   0.41898   0.44461

 Mulliken charges:
               1
     1  N   -0.425072
     2  C   -0.096970
     3  S   -0.477958
 Sum of Mulliken charges =  -1.00000

 Dipole moment (field-independent basis, Debye):
    X=             -0.5658    Y=             -1.2670    Z=             -0.0000  Tot=              1.3876
 Quadrupole moment (field-independent basis, Debye-Ang):
   XX=            -30.6348   YY=            -39.7206   ZZ=            -29.3423
   XY=             -3.9730   XZ=             -0.0000   YZ=              0.0000

 Normal termination of Gaussian 16 at Wed May  4 19:06:35 2022.
