 Gaussian 16, Revision C.01,
 Gaussian 16:  ES64L-G16RevC.01  3-Jul-2019

 -----------------------------------------------------
 #P MP2/aug-cc-pVTZ scf(maxcycle=200) opt geom(AddGIC)
 -----------------------------------------------------

 --------------
 Gaussian input
 --------------
 Symbolic Z-matrix:
 Charge = -1 Multiplicity = 1

 SCF Done:  E(RHF) =  -489.943299904     A.U. after   14 cycles
 E2 =    -0.5336302122D+00 EUMP2 =    -0.49047693011620D+03

 The electronic state is 1-A'.
 Alpha  occ. eigenvalues --  -91.73225 -15.35702 -11.10167  -8.73448  -6.41648
 Alpha  occ. eigenvalues --   -6.41401  -6.41400  -0.99540  -0.77586  -0.41359
 Alpha  occ. eigenvalues --   -0.33390  -0.29867  -0.29866  -0.14084  -0.14070
 Alpha virt. eigenvalues --    0.17182   0.19250   0.23703   0.23722   0.23959
 Alpha virt. eigenvalues --    0.23977   0.24965   0.30349   0.30375   0.31069
 Alpha virt. eigenvalues --    0.35795   0.39918   0.40480   0.40978   0.44002

 Mulliken charges:
               1
     1  N   -0.409889
     2  C   -0.118120
     3  S   -0.471991
 Sum of Mulliken charges =  -1.00000

 Dipole moment (field-independent basis, Debye):
    X=             -0.1591    Y=             -1.5826    Z=              0.0000  Tot=              1.5906
 Quadrupole moment (field-independent basis, Debye-Ang):
   XX=            -29.3472   YY=            -41.2228   ZZ=            -29.2650
   XY=             -1.0631   XZ=              0.0000   YZ=              0.0000

 Optimization completed.
    -- Stationary point found.

                         Standard orientation:
 ---------------------------------------------------------------------
 Center     Atomic      Atomic             Coordinates (Angstroms)
 Number     Number       Type             X           Y           Z
 ---------------------------------------------------------------------
      1          7           0        0.151120    1.812922    0.000000
      2          6           0        0.000000    0.630180    0.000000
      3         16           0       -0.066115   -1.029471   -0.000000
 ---------------------------------------------------------------------

 Normal termination of Gaussian 16 at Wed May  4 19:04:00 2022.
